<?xml version="1.0"?>
<VTKFile type="UnstructuredGrid"  version="0.1"  >
<UnstructuredGrid>
<Piece  NumberOfPoints="1089" NumberOfCells="2048">
<Points>
<DataArray  type="Float64"  NumberOfComponents="3"  format="ascii">0 0 0  0.03125 0 0  0.0625 0 0  0.09375 0 0  0.125 0 0  0.15625 0 0  0.1875 0 0  0.21875 0 0  0.25 0 0  0.28125 0 0  0.3125 0 0  0.34375 0 0  0.375 0 0  0.40625 0 0  0.4375 0 0  0.46875 0 0  0.5 0 0  0.53125 0 0  0.5625 0 0  0.59375 0 0  0.625 0 0  0.65625 0 0  0.6875 0 0  0.71875 0 0  0.75 0 0  0.78125 0 0  0.8125 0 0  0.84375 0 0  0.875 0 0  0.90625 0 0  0.9375 0 0  0.96875 0 0  1 0 0  0 0.03125 0  0.03125 0.03125 0  0.0625 0.03125 0  0.09375 0.03125 0  0.125 0.03125 0  0.15625 0.03125 0  0.1875 0.03125 0  0.21875 0.03125 0  0.25 0.03125 0  0.28125 0.03125 0  0.3125 0.03125 0  0.34375 0.03125 0  0.375 0.03125 0  0.40625 0.03125 0  0.4375 0.03125 0  0.46875 0.03125 0  0.5 0.03125 0  0.53125 0.03125 0  0.5625 0.03125 0  0.59375 0.03125 0  0.625 0.03125 0  0.65625 0.03125 0  0.6875 0.03125 0  0.71875 0.03125 0  0.75 0.03125 0  0.78125 0.03125 0  0.8125 0.03125 0  0.84375 0.03125 0  0.875 0.03125 0  0.90625 0.03125 0  0.9375 0.03125 0  0.96875 0.03125 0  1 0.03125 0  0 0.0625 0  0.03125 0.0625 0  0.0625 0.0625 0  0.09375 0.0625 0  0.125 0.0625 0  0.15625 0.0625 0  0.1875 0.0625 0  0.21875 0.0625 0  0.25 0.0625 0  0.28125 0.0625 0  0.3125 0.0625 0  0.34375 0.0625 0  0.375 0.0625 0  0.40625 0.0625 0  0.4375 0.0625 0  0.46875 0.0625 0  0.5 0.0625 0  0.53125 0.0625 0  0.5625 0.0625 0  0.59375 0.0625 0  0.625 0.0625 0  0.65625 0.0625 0  0.6875 0.0625 0  0.71875 0.0625 0  0.75 0.0625 0  0.78125 0.0625 0  0.8125 0.0625 0  0.84375 0.0625 0  0.875 0.0625 0  0.90625 0.0625 0  0.9375 0.0625 0  0.96875 0.0625 0  1 0.0625 0  0 0.09375 0  0.03125 0.09375 0  0.0625 0.09375 0  0.09375 0.09375 0  0.125 0.09375 0  0.15625 0.09375 0  0.1875 0.09375 0  0.21875 0.09375 0  0.25 0.09375 0  0.28125 0.09375 0  0.3125 0.09375 0  0.34375 0.09375 0  0.375 0.09375 0  0.40625 0.09375 0  0.4375 0.09375 0  0.46875 0.09375 0  0.5 0.09375 0  0.53125 0.09375 0  0.5625 0.09375 0  0.59375 0.09375 0  0.625 0.09375 0  0.65625 0.09375 0  0.6875 0.09375 0  0.71875 0.09375 0  0.75 0.09375 0  0.78125 0.09375 0  0.8125 0.09375 0  0.84375 0.09375 0  0.875 0.09375 0  0.90625 0.09375 0  0.9375 0.09375 0  0.96875 0.09375 0  1 0.09375 0  0 0.125 0  0.03125 0.125 0  0.0625 0.125 0  0.09375 0.125 0  0.125 0.125 0  0.15625 0.125 0  0.1875 0.125 0  0.21875 0.125 0  0.25 0.125 0  0.28125 0.125 0  0.3125 0.125 0  0.34375 0.125 0  0.375 0.125 0  0.40625 0.125 0  0.4375 0.125 0  0.46875 0.125 0  0.5 0.125 0  0.53125 0.125 0  0.5625 0.125 0  0.59375 0.125 0  0.625 0.125 0  0.65625 0.125 0  0.6875 0.125 0  0.71875 0.125 0  0.75 0.125 0  0.78125 0.125 0  0.8125 0.125 0  0.84375 0.125 0  0.875 0.125 0  0.90625 0.125 0  0.9375 0.125 0  0.96875 0.125 0  1 0.125 0  0 0.15625 0  0.03125 0.15625 0  0.0625 0.15625 0  0.09375 0.15625 0  0.125 0.15625 0  0.15625 0.15625 0  0.1875 0.15625 0  0.21875 0.15625 0  0.25 0.15625 0  0.28125 0.15625 0  0.3125 0.15625 0  0.34375 0.15625 0  0.375 0.15625 0  0.40625 0.15625 0  0.4375 0.15625 0  0.46875 0.15625 0  0.5 0.15625 0  0.53125 0.15625 0  0.5625 0.15625 0  0.59375 0.15625 0  0.625 0.15625 0  0.65625 0.15625 0  0.6875 0.15625 0  0.71875 0.15625 0  0.75 0.15625 0  0.78125 0.15625 0  0.8125 0.15625 0  0.84375 0.15625 0  0.875 0.15625 0  0.90625 0.15625 0  0.9375 0.15625 0  0.96875 0.15625 0  1 0.15625 0  0 0.1875 0  0.03125 0.1875 0  0.0625 0.1875 0  0.09375 0.1875 0  0.125 0.1875 0  0.15625 0.1875 0  0.1875 0.1875 0  0.21875 0.1875 0  0.25 0.1875 0  0.28125 0.1875 0  0.3125 0.1875 0  0.34375 0.1875 0  0.375 0.1875 0  0.40625 0.1875 0  0.4375 0.1875 0  0.46875 0.1875 0  0.5 0.1875 0  0.53125 0.1875 0  0.5625 0.1875 0  0.59375 0.1875 0  0.625 0.1875 0  0.65625 0.1875 0  0.6875 0.1875 0  0.71875 0.1875 0  0.75 0.1875 0  0.78125 0.1875 0  0.8125 0.1875 0  0.84375 0.1875 0  0.875 0.1875 0  0.90625 0.1875 0  0.9375 0.1875 0  0.96875 0.1875 0  1 0.1875 0  0 0.21875 0  0.03125 0.21875 0  0.0625 0.21875 0  0.09375 0.21875 0  0.125 0.21875 0  0.15625 0.21875 0  0.1875 0.21875 0  0.21875 0.21875 0  0.25 0.21875 0  0.28125 0.21875 0  0.3125 0.21875 0  0.34375 0.21875 0  0.375 0.21875 0  0.40625 0.21875 0  0.4375 0.21875 0  0.46875 0.21875 0  0.5 0.21875 0  0.53125 0.21875 0  0.5625 0.21875 0  0.59375 0.21875 0  0.625 0.21875 0  0.65625 0.21875 0  0.6875 0.21875 0  0.71875 0.21875 0  0.75 0.21875 0  0.78125 0.21875 0  0.8125 0.21875 0  0.84375 0.21875 0  0.875 0.21875 0  0.90625 0.21875 0  0.9375 0.21875 0  0.96875 0.21875 0  1 0.21875 0  0 0.25 0  0.03125 0.25 0  0.0625 0.25 0  0.09375 0.25 0  0.125 0.25 0  0.15625 0.25 0  0.1875 0.25 0  0.21875 0.25 0  0.25 0.25 0  0.28125 0.25 0  0.3125 0.25 0  0.34375 0.25 0  0.375 0.25 0  0.40625 0.25 0  0.4375 0.25 0  0.46875 0.25 0  0.5 0.25 0  0.53125 0.25 0  0.5625 0.25 0  0.59375 0.25 0  0.625 0.25 0  0.65625 0.25 0  0.6875 0.25 0  0.71875 0.25 0  0.75 0.25 0  0.78125 0.25 0  0.8125 0.25 0  0.84375 0.25 0  0.875 0.25 0  0.90625 0.25 0  0.9375 0.25 0  0.96875 0.25 0  1 0.25 0  0 0.28125 0  0.03125 0.28125 0  0.0625 0.28125 0  0.09375 0.28125 0  0.125 0.28125 0  0.15625 0.28125 0  0.1875 0.28125 0  0.21875 0.28125 0  0.25 0.28125 0  0.28125 0.28125 0  0.3125 0.28125 0  0.34375 0.28125 0  0.375 0.28125 0  0.40625 0.28125 0  0.4375 0.28125 0  0.46875 0.28125 0  0.5 0.28125 0  0.53125 0.28125 0  0.5625 0.28125 0  0.59375 0.28125 0  0.625 0.28125 0  0.65625 0.28125 0  0.6875 0.28125 0  0.71875 0.28125 0  0.75 0.28125 0  0.78125 0.28125 0  0.8125 0.28125 0  0.84375 0.28125 0  0.875 0.28125 0  0.90625 0.28125 0  0.9375 0.28125 0  0.96875 0.28125 0  1 0.28125 0  0 0.3125 0  0.03125 0.3125 0  0.0625 0.3125 0  0.09375 0.3125 0  0.125 0.3125 0  0.15625 0.3125 0  0.1875 0.3125 0  0.21875 0.3125 0  0.25 0.3125 0  0.28125 0.3125 0  0.3125 0.3125 0  0.34375 0.3125 0  0.375 0.3125 0  0.40625 0.3125 0  0.4375 0.3125 0  0.46875 0.3125 0  0.5 0.3125 0  0.53125 0.3125 0  0.5625 0.3125 0  0.59375 0.3125 0  0.625 0.3125 0  0.65625 0.3125 0  0.6875 0.3125 0  0.71875 0.3125 0  0.75 0.3125 0  0.78125 0.3125 0  0.8125 0.3125 0  0.84375 0.3125 0  0.875 0.3125 0  0.90625 0.3125 0  0.9375 0.3125 0  0.96875 0.3125 0  1 0.3125 0  0 0.34375 0  0.03125 0.34375 0  0.0625 0.34375 0  0.09375 0.34375 0  0.125 0.34375 0  0.15625 0.34375 0  0.1875 0.34375 0  0.21875 0.34375 0  0.25 0.34375 0  0.28125 0.34375 0  0.3125 0.34375 0  0.34375 0.34375 0  0.375 0.34375 0  0.40625 0.34375 0  0.4375 0.34375 0  0.46875 0.34375 0  0.5 0.34375 0  0.53125 0.34375 0  0.5625 0.34375 0  0.59375 0.34375 0  0.625 0.34375 0  0.65625 0.34375 0  0.6875 0.34375 0  0.71875 0.34375 0  0.75 0.34375 0  0.78125 0.34375 0  0.8125 0.34375 0  0.84375 0.34375 0  0.875 0.34375 0  0.90625 0.34375 0  0.9375 0.34375 0  0.96875 0.34375 0  1 0.34375 0  0 0.375 0  0.03125 0.375 0  0.0625 0.375 0  0.09375 0.375 0  0.125 0.375 0  0.15625 0.375 0  0.1875 0.375 0  0.21875 0.375 0  0.25 0.375 0  0.28125 0.375 0  0.3125 0.375 0  0.34375 0.375 0  0.375 0.375 0  0.40625 0.375 0  0.4375 0.375 0  0.46875 0.375 0  0.5 0.375 0  0.53125 0.375 0  0.5625 0.375 0  0.59375 0.375 0  0.625 0.375 0  0.65625 0.375 0  0.6875 0.375 0  0.71875 0.375 0  0.75 0.375 0  0.78125 0.375 0  0.8125 0.375 0  0.84375 0.375 0  0.875 0.375 0  0.90625 0.375 0  0.9375 0.375 0  0.96875 0.375 0  1 0.375 0  0 0.40625 0  0.03125 0.40625 0  0.0625 0.40625 0  0.09375 0.40625 0  0.125 0.40625 0  0.15625 0.40625 0  0.1875 0.40625 0  0.21875 0.40625 0  0.25 0.40625 0  0.28125 0.40625 0  0.3125 0.40625 0  0.34375 0.40625 0  0.375 0.40625 0  0.40625 0.40625 0  0.4375 0.40625 0  0.46875 0.40625 0  0.5 0.40625 0  0.53125 0.40625 0  0.5625 0.40625 0  0.59375 0.40625 0  0.625 0.40625 0  0.65625 0.40625 0  0.6875 0.40625 0  0.71875 0.40625 0  0.75 0.40625 0  0.78125 0.40625 0  0.8125 0.40625 0  0.84375 0.40625 0  0.875 0.40625 0  0.90625 0.40625 0  0.9375 0.40625 0  0.96875 0.40625 0  1 0.40625 0  0 0.4375 0  0.03125 0.4375 0  0.0625 0.4375 0  0.09375 0.4375 0  0.125 0.4375 0  0.15625 0.4375 0  0.1875 0.4375 0  0.21875 0.4375 0  0.25 0.4375 0  0.28125 0.4375 0  0.3125 0.4375 0  0.34375 0.4375 0  0.375 0.4375 0  0.40625 0.4375 0  0.4375 0.4375 0  0.46875 0.4375 0  0.5 0.4375 0  0.53125 0.4375 0  0.5625 0.4375 0  0.59375 0.4375 0  0.625 0.4375 0  0.65625 0.4375 0  0.6875 0.4375 0  0.71875 0.4375 0  0.75 0.4375 0  0.78125 0.4375 0  0.8125 0.4375 0  0.84375 0.4375 0  0.875 0.4375 0  0.90625 0.4375 0  0.9375 0.4375 0  0.96875 0.4375 0  1 0.4375 0  0 0.46875 0  0.03125 0.46875 0  0.0625 0.46875 0  0.09375 0.46875 0  0.125 0.46875 0  0.15625 0.46875 0  0.1875 0.46875 0  0.21875 0.46875 0  0.25 0.46875 0  0.28125 0.46875 0  0.3125 0.46875 0  0.34375 0.46875 0  0.375 0.46875 0  0.40625 0.46875 0  0.4375 0.46875 0  0.46875 0.46875 0  0.5 0.46875 0  0.53125 0.46875 0  0.5625 0.46875 0  0.59375 0.46875 0  0.625 0.46875 0  0.65625 0.46875 0  0.6875 0.46875 0  0.71875 0.46875 0  0.75 0.46875 0  0.78125 0.46875 0  0.8125 0.46875 0  0.84375 0.46875 0  0.875 0.46875 0  0.90625 0.46875 0  0.9375 0.46875 0  0.96875 0.46875 0  1 0.46875 0  0 0.5 0  0.03125 0.5 0  0.0625 0.5 0  0.09375 0.5 0  0.125 0.5 0  0.15625 0.5 0  0.1875 0.5 0  0.21875 0.5 0  0.25 0.5 0  0.28125 0.5 0  0.3125 0.5 0  0.34375 0.5 0  0.375 0.5 0  0.40625 0.5 0  0.4375 0.5 0  0.46875 0.5 0  0.5 0.5 0  0.53125 0.5 0  0.5625 0.5 0  0.59375 0.5 0  0.625 0.5 0  0.65625 0.5 0  0.6875 0.5 0  0.71875 0.5 0  0.75 0.5 0  0.78125 0.5 0  0.8125 0.5 0  0.84375 0.5 0  0.875 0.5 0  0.90625 0.5 0  0.9375 0.5 0  0.96875 0.5 0  1 0.5 0  0 0.53125 0  0.03125 0.53125 0  0.0625 0.53125 0  0.09375 0.53125 0  0.125 0.53125 0  0.15625 0.53125 0  0.1875 0.53125 0  0.21875 0.53125 0  0.25 0.53125 0  0.28125 0.53125 0  0.3125 0.53125 0  0.34375 0.53125 0  0.375 0.53125 0  0.40625 0.53125 0  0.4375 0.53125 0  0.46875 0.53125 0  0.5 0.53125 0  0.53125 0.53125 0  0.5625 0.53125 0  0.59375 0.53125 0  0.625 0.53125 0  0.65625 0.53125 0  0.6875 0.53125 0  0.71875 0.53125 0  0.75 0.53125 0  0.78125 0.531
[...]
<PointData  Scalars="f_8"> 
<DataArray  type="Float64"  Name="f_8"  format="ascii">1.0000000000000000e+00  1.0009765625000000e+00  1.0039062500000000e+00  1.0087890625000000e+00  1.0156250000000000e+00  1.0244140625000000e+00  1.0351562500000000e+00  1.0478515625000000e+00  1.0625000000000000e+00  1.0791015625000000e+00  1.0976562500000000e+00  1.1181640625000000e+00  1.1406250000000000e+00  1.1650390625000000e+00  1.1914062500000000e+00  1.2197265625000000e+00  1.2500000000000000e+00  1.2822265625000000e+00  1.3164062500000000e+00  1.3525390625000000e+00  1.3906250000000000e+00  1.4306640625000000e+00  1.4726562500000000e+00  1.5166015625000000e+00  1.5625000000000000e+00  1.6103515625000000e+00  1.6601562500000000e+00  1.7119140625000000e+00  1.7656250000000000e+00  1.8212890625000000e+00  1.8789062500000000e+00  1.9384765625000000e+00  2.0000000000000000e+00  1.0019531250000000e+00  1.0029296874999996e+00  1.0058593749999996e+00  1.0107421874999993e+00  1.0175781249999993e+00  1.0263671874999991e+00  1.0371093749999991e+00  1.0498046874999989e+00  1.0644531249999991e+00  1.0810546874999989e+00  1.0996093749999987e+00  1.1201171874999984e+00  1.1425781249999987e+00  1.1669921874999989e+00  1.1933593749999987e+00  1.2216796874999984e+00  1.2519531249999987e+00  1.2841796874999989e+00  1.3183593749999987e+00  1.3544921874999991e+00  1.3925781249999987e+00  1.4326171874999989e+00  1.4746093749999987e+00  1.5185546874999987e+00  1.5644531249999987e+00  1.6123046874999989e+00  1.6621093749999987e+00  1.7138671874999984e+00  1.7675781249999989e+00  1.8232421874999993e+00  1.8808593749999993e+00  1.9404296875000000e+00  2.0019531250000000e+00  1.0078125000000000e+00  1.0087890624999996e+00  1.0117187499999991e+00  1.0166015624999989e+00  1.0234374999999987e+00  1.0322265624999984e+00  1.0429687499999984e+00  1.0556640624999982e+00  1.0703124999999982e+00  1.0869140624999982e+00  1.1054687499999978e+00  1.1259765624999969e+00  1.1484374999999976e+00  1.1728515624999978e+00  1.1992187499999976e+00  1.2275390624999976e+00  1.2578124999999973e+00  1.2900390624999973e+00  1.3242187499999973e+00  1.3603515624999967e+00  1.3984374999999973e+00  1.4384765624999973e+00  1.4804687499999973e+00  1.5244140624999967e+00  1.5703124999999973e+00  1.6181640624999973e+00  1.6679687499999973e+00  1.7197265624999978e+00  1.7734374999999982e+00  1.8291015624999984e+00  1.8867187499999991e+00  1.9462890624999996e+00  2.0078125000000000e+00  1.0175781250000000e+00  1.0185546874999996e+00  1.0214843749999991e+00  1.0263671874999989e+00  1.0332031249999984e+00  1.0419921874999982e+00  1.0527343749999978e+00  1.0654296874999978e+00  1.0800781249999978e+00  1.0966796874999976e+00  1.1152343749999973e+00  1.1357421874999964e+00  1.1582031249999967e+00  1.1826171874999967e+00  1.2089843749999964e+00  1.2373046874999962e+00  1.2675781249999962e+00  1.2998046874999967e+00  1.3339843749999971e+00  1.3701171874999960e+00  1.4082031249999962e+00  1.4482421874999960e+00  1.4902343749999960e+00  1.5341796874999956e+00  1.5800781249999962e+00  1.6279296874999964e+00  1.6777343749999962e+00  1.7294921874999969e+00  1.7832031249999973e+00  1.8388671874999978e+00  1.8964843749999982e+00  1.9560546874999991e+00  2.0175781250000000e+00  1.0312500000000000e+00  1.0322265624999998e+00  1.0351562499999991e+00  1.0400390624999987e+00  1.0468749999999984e+00  1.0556640624999980e+00  1.0664062499999973e+00  1.0791015624999969e+00  1.0937499999999967e+00  1.1103515624999964e+00  1.1289062499999960e+00  1.1494140624999956e+00  1.1718749999999956e+00  1.1962890624999956e+00  1.2226562499999951e+00  1.2509765624999947e+00  1.2812499999999949e+00  1.3134765624999956e+00  1.3476562499999953e+00  1.3837890624999947e+00  1.4218749999999947e+00  1.4619140624999944e+00  1.5039062499999942e+00  1.5478515624999942e+00  1.5937499999999947e+00  1.6416015624999949e+00  1.6914062499999947e+00  1.7431640624999956e+00  1.7968749999999962e+00  1.8525390624999973e+00  1.9101562499999980e+00  1.9697265624999987e+00  2.0312500000000000e+00  1.0488281250000000e+00  1.0498046874999993e+00  1.0527343749999991e+00  1.0576171874999989e+00  1.0644531249999984e+00  1.0732421874999978e+00  1.0839843749999971e+00  1.0966796874999962e+00  1.1113281249999958e+00  1.1279296874999949e+00  1.1464843749999947e+00  1.1669921874999942e+00  1.1894531249999944e+00  1.2138671874999947e+00  1.2402343749999936e+00  1.2685546874999931e+00  1.2988281249999931e+00  1.3310546874999927e+00  1.3652343749999933e+00  1.4013671874999936e+00  1.4394531249999931e+00  1.4794921874999925e+00  1.5214843749999927e+00  1.5654296874999927e+00  1.6113281249999929e+00  1.6591796874999936e+00  1.7089843749999942e+00  1.7607421874999949e+00  1.8144531249999953e+00  1.8701171874999967e+00  1.9277343749999976e+00  1.9873046874999982e+00  2.0488281250000000e+00  1.0703125000000000e+00  1.0712890624999991e+00  1.0742187499999989e+00  1.0791015624999984e+00  1.0859374999999980e+00  1.0947265624999976e+00  1.1054687499999967e+00  1.1181640624999956e+00  1.1328124999999949e+00  1.1494140624999938e+00  1.1679687499999938e+00  1.1884765624999933e+00  1.2109374999999931e+00  1.2353515624999931e+00  1.2617187499999927e+00  1.2900390624999920e+00  1.3203124999999918e+00  1.3525390624999909e+00  1.3867187499999916e+00  1.4228515624999916e+00  1.4609374999999916e+00  1.5009765624999913e+00  1.5429687499999918e+00  1.5869140624999920e+00  1.6328124999999922e+00  1.6806640624999927e+00  1.7304687499999933e+00  1.7822265624999942e+00  1.8359374999999951e+00  1.8916015624999964e+00  1.9492187499999973e+00  2.0087890624999982e+00  2.0703125000000000e+00  1.0957031250000000e+00  1.0966796874999991e+00  1.0996093749999987e+00  1.1044921874999982e+00  1.1113281249999978e+00  1.1201171874999969e+00  1.1308593749999960e+00  1.1435546874999949e+00  1.1582031249999944e+00  1.1748046874999933e+00  1.1933593749999929e+00  1.2138671874999922e+00  1.2363281249999920e+00  1.2607421874999920e+00  1.2871093749999916e+00  1.3154296874999911e+00  1.3457031249999909e+00  1.3779296874999902e+00  1.4121093749999902e+00  1.4482421874999900e+00  1.4863281249999900e+00  1.5263671874999898e+00  1.5683593749999907e+00  1.6123046874999911e+00  1.6582031249999913e+00  1.7060546874999920e+00  1.7558593749999929e+00  1.8076171874999938e+00  1.8613281249999947e+00  1.9169921874999962e+00  1.9746093749999971e+00  2.0341796874999982e+00  2.0957031250000000e+00  1.1250000000000000e+00  1.1259765624999991e+00  1.1289062499999987e+00  1.1337890624999982e+00  1.1406249999999978e+00  1.1494140624999969e+00  1.1601562499999960e+00  1.1728515624999949e+00  1.1874999999999940e+00  1.2041015624999931e+00  1.2226562499999925e+00  1.2431640624999918e+00  1.2656249999999913e+00  1.2900390624999909e+00  1.3164062499999907e+00  1.3447265624999902e+00  1.3749999999999902e+00  1.4072265624999902e+00  1.4414062499999896e+00  1.4775390624999893e+00  1.5156249999999893e+00  1.5556640624999891e+00  1.5976562499999900e+00  1.6416015624999905e+00  1.6874999999999905e+00  1.7353515624999911e+00  1.7851562499999925e+00  1.8369140624999936e+00  1.8906249999999947e+00  1.9462890624999962e+00  2.0039062499999973e+00  2.0634765624999982e+00  2.1250000000000000e+00  1.1582031250000000e+00  1.1591796874999991e+00  1.1621093749999987e+00  1.1669921874999982e+00  1.1738281249999982e+00  1.1826171874999971e+00  1.1933593749999960e+00  1.2060546874999947e+00  1.2207031249999936e+00  1.2373046874999927e+00  1.2558593749999922e+00  1.2763671874999911e+00  1.2988281249999909e+00  1.3232421874999902e+00  1.3496093749999898e+00  1.3779296874999891e+00  1.4082031249999891e+00  1.4404296874999889e+00  1.4746093749999885e+00  1.5107421874999887e+00  1.5488281249999885e+00  1.5888671874999885e+00  1.6308593749999885e+00  1.6748046874999891e+00  1.7207031249999893e+00  1.7685546874999907e+00  1.8183593749999920e+00  1.8701171874999929e+00  1.9238281249999944e+00  1.9794921874999960e+00  2.0371093749999969e+00  2.0966796874999982e+00  2.1582031250000000e+00  1.1953125000000000e+00  1.1962890624999989e+00  1.1992187499999982e+00  1.2041015624999978e+00  1.2109374999999973e+00  1.2197265624999969e+00  1.2304687499999953e+00  1.2431640624999942e+00  1.2578124999999933e+00  1.2744140624999927e+00  1.2929687499999918e+00  1.3134765624999911e+00  1.3359374999999907e+00  1.3603515624999900e+00  1.3867187499999893e+00  1.4150390624999885e+00  1.4453124999999885e+00  1.4775390624999880e+00  1.5117187499999878e+00  1.5478515624999876e+00  1.5859374999999871e+00  1.6259765624999871e+00  1.6679687499999871e+00  1.7119140624999880e+00  1.7578124999999889e+00  1.8056640624999902e+00  1.8554687499999916e+00  1.9072265624999929e+00  1.9609374999999944e+00  2.0166015624999956e+00  2.0742187499999960e+00  2.1337890624999978e+00  2.1953125000000000e+00  1.2363281250000000e+00  1.2373046874999987e+00  1.2402343749999978e+00  1.2451171874999976e+00  1.2519531249999964e+00  1.2607421874999956e+00  1.2714843749999944e+00  1.2841796874999936e+00  1.2988281249999929e+00  1.3154296874999920e+00  1.3339843749999913e+00  1.3544921874999905e+00  1.3769531249999900e+00  1.4013671874999896e+00  1.4277343749999891e+00  1.4560546874999880e+00  1.4863281249999876e+00  1.5185546874999871e+00  1.5527343749999869e+00  1.5888671874999867e+00  1.6269531249999867e+00  1.6669921874999862e+00  1.7089843749999862e+00  1.7529296874999871e+00  1.7988281249999880e+00  1.8466796874999898e+00  1.8964843749999913e+00  1.9482421874999927e+00  2.0019531249999947e+00  2.0576171874999956e+00  2.1152343749999964e+00  2.1748046874999982e+00  2.2363281250000000e+00  1.2812500000000000e+00  1.2822265624999987e+00  1.2851562499999980e+00  1.2900390624999973e+00  1.2968749999999964e+00  1.3056640624999956e+00  1.3164062499999942e+00  1.3291015624999929e+00  1.3437499999999920e+00  1.3603515624999911e+00  1.3789062499999909e+00  1.3994140624999905e+00  1.4218749999999900e+00  1.4462890624999893e+00  1.4726562499999893e+00  1.5009765624999885e+00  1.5312499999999876e+00  1.5634765624999865e+00  1.5976562499999860e+00  1.6337890624999858e+00  1.6718749999999862e+00  1.7119140624999853e+00  1.7539062499999851e+00  1.7978515624999858e+00  1.8437499999999876e+00  1.8916015624999893e+00  1.9414062499999907e+00  1.9931640624999922e+00  2.0468749999999938e+00  2.1025390624999951e+00  2.1601562499999964e+00  2.2197265624999978e+00  2.2812500000000000e+00  1.3300781250000000e+00  1.3310546874999989e+00  1.3339843749999982e+00  1.3388671874999973e+00  1.3457031249999960e+00  1.3544921874999947e+00  1.3652343749999938e+00  1.3779296874999918e+00  1.3925781249999911e+00  1.4091796874999916e+00  1.4277343749999909e+00  1.4482421874999900e+00  1.4707031249999898e+00  1.4951171874999893e+00  1.5214843749999898e+00  1.5498046874999893e+00  1.5800781249999876e+00  1.6123046874999867e+00  1.6464843749999860e+00  1.6826171874999856e+00  1.7207031249999853e+00  1.7607421874999853e+00  1.8027343749999858e+00  1.8466796874999862e+00  1.8925781249999876e+00  1.9404296874999889e+00  1.9902343749999898e+00  2.0419921874999916e+00  2.0957031249999933e+00  2.1513671874999947e+00  2.2089843749999960e+00  2.2685546874999978e+00  2.3300781250000000e+00  1.3828125000000000e+00  1.3837890624999989e+00  1.3867187499999982e+00  1.3916015624999978e+00  1.3984374999999956e+00  1.4072265624999938e+00  1.4179687499999927e+00  1.4306640624999916e+00  1.4453124999999911e+00  1.4619140624999907e+00  1.4804687499999902e+00  1.5009765624999896e+00  1.5234374999999893e+00  1.5478515624999898e+00  1.5742187499999893e+00  1.6025390624999887e+00  1.6328124999999873e+00  1.6650390624999867e+00  1.6992187499999860e+00  1.7353515624999853e+00  1.7734374999999851e+00  1.8134765624999851e+00  1.8554687499999858e+00  1.8994140624999871e+00  1.9453124999999878e+00  1.9931640624999885e+00  2.0429687499999898e+00  2.0947265624999920e+00  2.1484374999999933e+00  2.2041015624999942e+00  2.2617187499999956e+00  2.3212890624999978e+00  2.3828125000000000e+00  1.4394531250000000e+00  1.4404296874999991e+00  1.4433593749999978e+00  1.4482421874999967e+00  1.4550781249999951e+00  1.4638671874999933e+00  1.4746093749999920e+00  1.4873046874999911e+00  1.5019531249999907e+00  1.5185546874999898e+00  1.5371093749999893e+00  1.5576171874999889e+00  1.5800781249999889e+00  1.6044921874999898e+00  1.6308593749999896e+00  1.6591796874999889e+00  1.6894531249999880e+00  1.7216796874999869e+00  1.7558593749999860e+00  1.7919921874999853e+00  1.8300781249999853e+00  1.8701171874999849e+00  1.9121093749999849e+00  1.9560546874999873e+00  2.0019531249999880e+00  2.0498046874999880e+00  2.0996093749999885e+00  2.1513671874999916e+00  2.2050781249999929e+00  2.2607421874999938e+00  2.3183593749999942e+00  2.3779296874999973e+00  2.4394531250000000e+00  1.5000000000000000e+00  1.5009765624999987e+00  1.5039062499999978e+00  1.5087890624999962e+00  1.5156249999999947e+00  1.5244140624999931e+00  1.5351562499999916e+00  1.5478515624999907e+00  1.5624999999999898e+00  1.5791015624999889e+00  1.5976562499999889e+00  1.6181640624999885e+00  1.6406249999999885e+00  1.6650390624999889e+00  1.6914062499999898e+00  1.7197265624999893e+00  1.7499999999999882e+00  1.7822265624999865e+00  1.8164062499999858e+00  1.8525390624999856e+00  1.8906249999999858e+00  1.9306640624999858e+00  1.9726562499999865e+00  2.0166015624999876e+00  2.0624999999999876e+00  2.1103515624999876e+00  2.1601562499999885e+00  2.2119140624999898e+00  2.2656249999999920e+00  2.3212890624999942e+00  2.3789062499999951e+00  2.4384765624999969e+00  2.5000000000000000e+00  1.5644531250000000e+00  1.5654296874999989e+00  1.5683593749999973e+00  1.5732421874999960e+00  1.5800781249999947e+00  1.5888671874999929e+00  1.5996093749999909e+00  1.6123046874999905e+00  1.6269531249999893e+00  1.6435546874999887e+00  1.6621093749999882e+00  1.6826171874999871e+00  1.7050781249999871e+00  1.7294921874999876e+00  1.7558593749999878e+00  1.7841796874999878e+00  1.8144531249999880e+00  1.8466796874999865e+00  1.8808593749999858e+00  1.9169921874999856e+00  1.9550781249999858e+00  1.9951171874999865e+00  2.0371093749999871e+00  2.0810546874999871e+00  2.1269531249999876e+00  2.1748046874999876e+00  2.2246093749999885e+00  2.2763671874999893e+00  2.3300781249999920e+00  2.3857421874999938e+00  2.4433593749999947e+00  2.5029296874999951e+00  2.5644531250000000e+00  1.6328125000000000e+00  1.6337890624999984e+00  1.6367187499999969e+00  1.6416015624999956e+00  1.6484374999999942e+00  1.6572265624999929e+00  1.6679687499999911e+00  1.6806640624999900e+00  1.6953124999999889e+00  1.7119140624999880e+00  1.7304687499999878e+00  1.7509765624999869e+00  1.7734374999999865e+00  1.7978515624999865e+00  1.8242187499999865e+00  1.8525390624999865e+00  1.8828124999999860e+00  1.9150390624999856e+00  1.9492187499999858e+00  1.9853515624999858e+00  2.0234374999999867e+00  2.0634765624999871e+00  2.1054687499999880e+00  2.1494140624999893e+00  2.1953124999999880e+00  2.2431640624999876e+00  2.2929687499999885e+00  2.3447265624999907e+00  2.3984374999999920e+00  2.4541015624999942e+00  2.5117187499999956e+00  2.5712890624999973e+00  2.6328125000000000e+00  1.7050781250000000e+00  1.7060546874999976e+00  1.7089843749999962e+00  1.7138671874999953e+00  1.7207031249999938e+00  1.7294921874999922e+00  1.7402343749999907e+00  1.7529296874999893e+00  1.7675781249999882e+00  1.7841796874999876e+00  1.8027343749999873e+00  1.8232421874999867e+00  1.8457031249999862e+00  1.8701171874999860e+00  1.8964843749999853e+00  1.9248046874999851e+00  1.9550781249999840e+00  1.9873046874999845e+00  2.0214843749999853e+00  2.0576171874999862e+00  2.0957031249999876e+00  2.1357421874999880e+00  2.1777343749999885e+00  2.2216796874999885e+00  2.2675781249999880e+00  2.3154296874999867e+00  2.3652343749999867e+00  2.4169921874999902e+00  2.4707031249999920e+00  2.5263671874999938e+00  2.5839843749999960e+00  2.6435546874999973e+00  2.7050781250000000e+00  1.7812500000000000e+00  1.7822265624999978e+00  1.7851562499999967e+00  1.7900390624999958e+00  1.7968749999999940e+00  1.8056640624999927e+00  1.8164062499999911e+00  1.8291015624999896e+00  1.8437499999999887e+00  1.8603515624999880e+00  1.8789062499999871e+00  1.8994140624999865e+00  1.9218749999999862e+00  1.9462890624999860e+00  1.9726562499999849e+00  2.0009765624999845e+00  2.0312499999999845e+00  2.0634765624999845e+00  2.0976562499999853e+00  2.1337890624999862e+00  2.1718749999999867e+00  2.2119140624999867e+00  2.2539062499999871e+00  2.2978515624999871e+00  2.3437499999999871e+00  2.3916015624999867e+00  2.4414062499999876e+00  2.4931640624999902e+00  2.5468749999999920e+00  2.6025390624999938e+00  2.6601562499999956e+00  2.7197265624999978e+00  2.7812500000000000e+00  1.8613281250000000e+00  1.8623046874999982e+00  1.8652343749999967e+00  1.8701171874999956e+00  1.8769531249999940e+00  1.8857421874999925e+00  1.8964843749999907e+00  1.9091796874999896e+00  1.9238281249999885e+00  1.9404296874999876e+00  1.9589843749999867e+00  1.9794921874999862e+00  2.0019531249999858e+00  2.0263671874999853e+00  2.0527343749999853e+00  2.0810546874999853e+00  2.1113281249999845e+00  2.1435546874999845e+00  2.1777343749999845e+00  2.2138671874999858e+00  2.2519531249999858e+00  2.2919921874999858e+00  2.3339843749999862e+00  2.3779296874999862e+00  2.4238281249999862e+00  2.4716796874999862e+00  2.5214843749999876e+00  2.5732421874999898e+00  2.6269531249999916e+00  2.6826171874999933e+00  2.7402343749999951e+00  2.7998046874999973e+00  2.8613281250000000e+00  1.9453125000000000e+00  1.9462890624999978e+00  1.9492187499999964e+00  1.9541015624999953e+00  1.9609374999999938e+00  1.9697265624999920e+00  1.9804687499999911e+00  1.9931640624999900e+00  2.0078124999999893e+00  2.0244140624999880e+00  2.0429687499999867e+00  2.0634765624999858e+00  2.0859374999999849e+00  2.1103515624999849e+00  2.1367187499999849e+00  2.1650390624999849e+00  2.1953124999999845e+00  2.2275390624999845e+00  2.2617187499999845e+00  2.2978515624999840e+00  2.3359374999999853e+00  2.3759765624999853e+00  2.4179687499999853e+00  2.4619140624999853e+00  2.5078124999999858e+00  2.5556640624999862e+00  2.6054687499999871e+00  2.6572265624999885e+00  2.7109374999999907e+00  2.7666015624999929e+00  2.8242187499999951e+00  2.8837890624999973e+00  2.9453125000000000e+00  2.0332031250000000e+00  2.0341796874999964e+00  2.0371093749999969e+00  2.0419921874999951e+00  2.0488281249999938e+00  2.0576171874999920e+00  2.0683593749999911e+00  2.0810546874999902e+00  2.0957031249999898e+00  2.1123046874999880e+00  2.1308593749999867e+00  2.1513671874999858e+00  2.1738281249999840e+00  2.1982421874999849e+00  2.2246093749999853e+00  2.2529296874999853e+00  2.2832031249999840e+00  2.3154296874999845e+00  2.3496093749999849e+00  2.3857421874999849e+00  2.4238281249999858e+00  2.4638671874999853e+00  2.5058593749999849e+00  2.5498046874999849e+00  2.5957031249999853e+00  2.6435546874999853e+00  2.6933593749999871e+00  2.7451171874999885e+00  2.7988281249999911e+00  2.8544921874999929e+00  2.9121093749999947e+00  2.9716796874999973e+00  3.0332031250000000e+00  2.1250000000000000e+00  2.1259765624999978e+00  2.1289062499999964e+00  2.1337890624999951e+00  2.1406249999999938e+00  2.1494140624999925e+00  2.1601562499999911e+00  2.1728515624999898e+00  2.1874999999999889e+00  2.2041015624999885e+00  2.2226562499999867e+00  2.2431640624999853e+00  2.2656249999999849e+00  2.2900390624999849e+00  2.3164062499999849e+00  2.3447265624999845e+00  2.3749999999999845e+00  2.4072265624999849e+00  2.4414062499999853e+00  2.4775390624999853e+00  2.5156249999999858e+00  2.5556640624999853e+00  2.5976562499999849e+00  2.6416015624999849e+00  2.6874999999999858e+00  2.7353515624999862e+00  2.7851562499999880e+00  2.8369140624999902e+00  2.8906249999999916e+00  2.9462890624999929e+00  3.0039062499999938e+00  3.0634765624999969e+00  3.1250000000000000e+00  2.2207031250000000e+00  2.2216796874999978e+00  2.2246093749999964e+00  2.2294921874999947e+00  2.2363281249999938e+0