<?xml version="1.0"?>
<VTKFile type="UnstructuredGrid"  version="0.1"  >
<UnstructuredGrid>
<Piece  NumberOfPoints="1089" NumberOfCells="2048">
<Points>
<DataArray  type="Float64"  NumberOfComponents="3"  format="ascii">0 0 0  0.03125 0 0  0.0625 0 0  0.09375 0 0  0.125 0 0  0.15625 0 0  0.1875 0 0  0.21875 0 0  0.25 0 0  0.28125 0 0  0.3125 0 0  0.34375 0 0  0.375 0 0  0.40625 0 0  0.4375 0 0  0.46875 0 0  0.5 0 0  0.53125 0 0  0.5625 0 0  0.59375 0 0  0.625 0 0  0.65625 0 0  0.6875 0 0  0.71875 0 0  0.75 0 0  0.78125 0 0  0.8125 0 0  0.84375 0 0  0.875 0 0  0.90625 0 0  0.9375 0 0  0.96875 0 0  1 0 0  0 0.0625 0  0.03125 0.0625 0  0.0625 0.0625 0  0.09375 0.0625 0  0.125 0.0625 0  0.15625 0.0625 0  0.1875 0.0625 0  0.21875 0.0625 0  0.25 0.0625 0  0.28125 0.0625 0  0.3125 0.0625 0  0.34375 0.0625 0  0.375 0.0625 0  0.40625 0.0625 0  0.4375 0.0625 0  0.46875 0.0625 0  0.5 0.0625 0  0.53125 0.0625 0  0.5625 0.0625 0  0.59375 0.0625 0  0.625 0.0625 0  0.65625 0.0625 0  0.6875 0.0625 0  0.71875 0.0625 0  0.75 0.0625 0  0.78125 0.0625 0  0.8125 0.0625 0  0.84375 0.0625 0  0.875 0.0625 0  0.90625 0.0625 0  0.9375 0.0625 0  0.96875 0.0625 0  1 0.0625 0  0 0.125 0  0.03125 0.125 0  0.0625 0.125 0  0.09375 0.125 0  0.125 0.125 0  0.15625 0.125 0  0.1875 0.125 0  0.21875 0.125 0  0.25 0.125 0  0.28125 0.125 0  0.3125 0.125 0  0.34375 0.125 0  0.375 0.125 0  0.40625 0.125 0  0.4375 0.125 0  0.46875 0.125 0  0.5 0.125 0  0.53125 0.125 0  0.5625 0.125 0  0.59375 0.125 0  0.625 0.125 0  0.65625 0.125 0  0.6875 0.125 0  0.71875 0.125 0  0.75 0.125 0  0.78125 0.125 0  0.8125 0.125 0  0.84375 0.125 0  0.875 0.125 0  0.90625 0.125 0  0.9375 0.125 0  0.96875 0.125 0  1 0.125 0  0 0.1875 0  0.03125 0.1875 0  0.0625 0.1875 0  0.09375 0.1875 0  0.125 0.1875 0  0.15625 0.1875 0  0.1875 0.1875 0  0.21875 0.1875 0  0.25 0.1875 0  0.28125 0.1875 0  0.3125 0.1875 0  0.34375 0.1875 0  0.375 0.1875 0  0.40625 0.1875 0  0.4375 0.1875 0  0.46875 0.1875 0  0.5 0.1875 0  0.53125 0.1875 0  0.5625 0.1875 0  0.59375 0.1875 0  0.625 0.1875 0  0.65625 0.1875 0  0.6875 0.1875 0  0.71875 0.1875 0  0.75 0.1875 0  0.78125 0.1875 0  0.8125 0.1875 0  0.84375 0.1875 0  0.875 0.1875 0  0.90625 0.1875 0  0.9375 0.1875 0  0.96875 0.1875 0  1 0.1875 0  0 0.25 0  0.03125 0.25 0  0.0625 0.25 0  0.09375 0.25 0  0.125 0.25 0  0.15625 0.25 0  0.1875 0.25 0  0.21875 0.25 0  0.25 0.25 0  0.28125 0.25 0  0.3125 0.25 0  0.34375 0.25 0  0.375 0.25 0  0.40625 0.25 0  0.4375 0.25 0  0.46875 0.25 0  0.5 0.25 0  0.53125 0.25 0  0.5625 0.25 0  0.59375 0.25 0  0.625 0.25 0  0.65625 0.25 0  0.6875 0.25 0  0.71875 0.25 0  0.75 0.25 0  0.78125 0.25 0  0.8125 0.25 0  0.84375 0.25 0  0.875 0.25 0  0.90625 0.25 0  0.9375 0.25 0  0.96875 0.25 0  1 0.25 0  0 0.3125 0  0.03125 0.3125 0  0.0625 0.3125 0  0.09375 0.3125 0  0.125 0.3125 0  0.15625 0.3125 0  0.1875 0.3125 0  0.21875 0.3125 0  0.25 0.3125 0  0.28125 0.3125 0  0.3125 0.3125 0  0.34375 0.3125 0  0.375 0.3125 0  0.40625 0.3125 0  0.4375 0.3125 0  0.46875 0.3125 0  0.5 0.3125 0  0.53125 0.3125 0  0.5625 0.3125 0  0.59375 0.3125 0  0.625 0.3125 0  0.65625 0.3125 0  0.6875 0.3125 0  0.71875 0.3125 0  0.75 0.3125 0  0.78125 0.3125 0  0.8125 0.3125 0  0.84375 0.3125 0  0.875 0.3125 0  0.90625 0.3125 0  0.9375 0.3125 0  0.96875 0.3125 0  1 0.3125 0  0 0.375 0  0.03125 0.375 0  0.0625 0.375 0  0.09375 0.375 0  0.125 0.375 0  0.15625 0.375 0  0.1875 0.375 0  0.21875 0.375 0  0.25 0.375 0  0.28125 0.375 0  0.3125 0.375 0  0.34375 0.375 0  0.375 0.375 0  0.40625 0.375 0  0.4375 0.375 0  0.46875 0.375 0  0.5 0.375 0  0.53125 0.375 0  0.5625 0.375 0  0.59375 0.375 0  0.625 0.375 0  0.65625 0.375 0  0.6875 0.375 0  0.71875 0.375 0  0.75 0.375 0  0.78125 0.375 0  0.8125 0.375 0  0.84375 0.375 0  0.875 0.375 0  0.90625 0.375 0  0.9375 0.375 0  0.96875 0.375 0  1 0.375 0  0 0.4375 0  0.03125 0.4375 0  0.0625 0.4375 0  0.09375 0.4375 0  0.125 0.4375 0  0.15625 0.4375 0  0.1875 0.4375 0  0.21875 0.4375 0  0.25 0.4375 0  0.28125 0.4375 0  0.3125 0.4375 0  0.34375 0.4375 0  0.375 0.4375 0  0.40625 0.4375 0  0.4375 0.4375 0  0.46875 0.4375 0  0.5 0.4375 0  0.53125 0.4375 0  0.5625 0.4375 0  0.59375 0.4375 0  0.625 0.4375 0  0.65625 0.4375 0  0.6875 0.4375 0  0.71875 0.4375 0  0.75 0.4375 0  0.78125 0.4375 0  0.8125 0.4375 0  0.84375 0.4375 0  0.875 0.4375 0  0.90625 0.4375 0  0.9375 0.4375 0  0.96875 0.4375 0  1 0.4375 0  0 0.5 0  0.03125 0.5 0  0.0625 0.5 0  0.09375 0.5 0  0.125 0.5 0  0.15625 0.5 0  0.1875 0.5 0  0.21875 0.5 0  0.25 0.5 0  0.28125 0.5 0  0.3125 0.5 0  0.34375 0.5 0  0.375 0.5 0  0.40625 0.5 0  0.4375 0.5 0  0.46875 0.5 0  0.5 0.5 0  0.53125 0.5 0  0.5625 0.5 0  0.59375 0.5 0  0.625 0.5 0  0.65625 0.5 0  0.6875 0.5 0  0.71875 0.5 0  0.75 0.5 0  0.78125 0.5 0  0.8125 0.5 0  0.84375 0.5 0  0.875 0.5 0  0.90625 0.5 0  0.9375 0.5 0  0.96875 0.5 0  1 0.5 0  0 0.5625 0  0.03125 0.5625 0  0.0625 0.5625 0  0.09375 0.5625 0  0.125 0.5625 0  0.15625 0.5625 0  0.1875 0.5625 0  0.21875 0.5625 0  0.25 0.5625 0  0.28125 0.5625 0  0.3125 0.5625 0  0.34375 0.5625 0  0.375 0.5625 0  0.40625 0.5625 0  0.4375 0.5625 0  0.46875 0.5625 0  0.5 0.5625 0  0.53125 0.5625 0  0.5625 0.5625 0  0.59375 0.5625 0  0.625 0.5625 0  0.65625 0.5625 0  0.6875 0.5625 0  0.71875 0.5625 0  0.75 0.5625 0  0.78125 0.5625 0  0.8125 0.5625 0  0.84375 0.5625 0  0.875 0.5625 0  0.90625 0.5625 0  0.9375 0.5625 0  0.96875 0.5625 0  1 0.5625 0  0 0.625 0  0.03125 0.625 0  0.0625 0.625 0  0.09375 0.625 0  0.125 0.625 0  0.15625 0.625 0  0.1875 0.625 0  0.21875 0.625 0  0.25 0.625 0  0.28125 0.625 0  0.3125 0.625 0  0.34375 0.625 0  0.375 0.625 0  0.40625 0.625 0  0.4375 0.625 0  0.46875 0.625 0  0.5 0.625 0  0.53125 0.625 0  0.5625 0.625 0  0.59375 0.625 0  0.625 0.625 0  0.65625 0.625 0  0.6875 0.625 0  0.71875 0.625 0  0.75 0.625 0  0.78125 0.625 0  0.8125 0.625 0  0.84375 0.625 0  0.875 0.625 0  0.90625 0.625 0  0.9375 0.625 0  0.96875 0.625 0  1 0.625 0  0 0.6875 0  0.03125 0.6875 0  0.0625 0.6875 0  0.09375 0.6875 0  0.125 0.6875 0  0.15625 0.6875 0  0.1875 0.6875 0  0.21875 0.6875 0  0.25 0.6875 0  0.28125 0.6875 0  0.3125 0.6875 0  0.34375 0.6875 0  0.375 0.6875 0  0.40625 0.6875 0  0.4375 0.6875 0  0.46875 0.6875 0  0.5 0.6875 0  0.53125 0.6875 0  0.5625 0.6875 0  0.59375 0.6875 0  0.625 0.6875 0  0.65625 0.6875 0  0.6875 0.6875 0  0.71875 0.6875 0  0.75 0.6875 0  0.78125 0.6875 0  0.8125 0.6875 0  0.84375 0.6875 0  0.875 0.6875 0  0.90625 0.6875 0  0.9375 0.6875 0  0.96875 0.6875 0  1 0.6875 0  0 0.75 0  0.03125 0.75 0  0.0625 0.75 0  0.09375 0.75 0  0.125 0.75 0  0.15625 0.75 0  0.1875 0.75 0  0.21875 0.75 0  0.25 0.75 0  0.28125 0.75 0  0.3125 0.75 0  0.34375 0.75 0  0.375 0.75 0  0.40625 0.75 0  0.4375 0.75 0  0.46875 0.75 0  0.5 0.75 0  0.53125 0.75 0  0.5625 0.75 0  0.59375 0.75 0  0.625 0.75 0  0.65625 0.75 0  0.6875 0.75 0  0.71875 0.75 0  0.75 0.75 0  0.78125 0.75 0  0.8125 0.75 0  0.84375 0.75 0  0.875 0.75 0  0.90625 0.75 0  0.9375 0.75 0  0.96875 0.75 0  1 0.75 0  0 0.8125 0  0.03125 0.8125 0  0.0625 0.8125 0  0.09375 0.8125 0  0.125 0.8125 0  0.15625 0.8125 0  0.1875 0.8125 0  0.21875 0.8125 0  0.25 0.8125 0  0.28125 0.8125 0  0.3125 0.8125 0  0.34375 0.8125 0  0.375 0.8125 0  0.40625 0.8125 0  0.4375 0.8125 0  0.46875 0.8125 0  0.5 0.8125 0  0.53125 0.8125 0  0.5625 0.8125 0  0.59375 0.8125 0  0.625 0.8125 0  0.65625 0.8125 0  0.6875 0.8125 0  0.71875 0.8125 0  0.75 0.8125 0  0.78125 0.8125 0  0.8125 0.8125 0  0.84375 0.8125 0  0.875 0.8125 0  0.90625 0.8125 0  0.9375 0.8125 0  0.96875 0.8125 0  1 0.8125 0  0 0.875 0  0.03125 0.875 0  0.0625 0.875 0  0.09375 0.875 0  0.125 0.875 0  0.15625 0.875 0  0.1875 0.875 0  0.21875 0.875 0  0.25 0.875 0  0.28125 0.875 0  0.3125 0.875 0  0.34375 0.875 0  0.375 0.875 0  0.40625 0.875 0  0.4375 0.875 0  0.46875 0.875 0  0.5 0.875 0  0.53125 0.875 0  0.5625 0.875 0  0.59375 0.875 0  0.625 0.875 0  0.65625 0.875 0  0.6875 0.875 0  0.71875 0.875 0  0.75 0.875 0  0.78125 0.875 0  0.8125 0.875 0  0.84375 0.875 0  0.875 0.875 0  0.90625 0.875 0  0.9375 0.875 0  0.96875 0.875 0  1 0.875 0  0 0.9375 0  0.03125 0.9375 0  0.0625 0.9375 0  0.09375 0.9375 0  0.125 0.9375 0  0.15625 0.9375 0  0.1875 0.9375 0  0.21875 0.9375 0  0.25 0.9375 0  0.28125 0.9375 0  0.3125 0.9375 0  0.34375 0.9375 0  0.375 0.9375 0  0.40625 0.9375 0  0.4375 0.9375 0  0.46875 0.9375 0  0.5 0.9375 0  0.53125 0.9375 0  0.5625 0.9375 0  0.59375 0.9375 0  0.625 0.9375 0  0.65625 0.9375 0  0.6875 0.9375 0  0.71875 0.9375 0  0.75 0.9375 0  0.78125 0.9375 0  0.8125 0.9375 0  0.84375 0.9375 0  0.875 0.9375 0  0.90625 0.9375 0  0.9375 0.9375 0  0.96875 0.9375 0  1 0.9375 0  0 1 0  0.03125 1 0  0.0625 1 0  0.09375 1 0  0.125 1 0  0.15625 1 0  0.1875 1 0  0.21875 1 0  0.25 1 0  0.28125 1 0  0.3125 1 0  0.34375 1 0  0.375 1 0  0.40625 1 0  0.4375 1 0  0.46875 1 0  0.5 1 0  0.53125 1 0  0.5625 1 0  0.59375 1 0  0.625 1 0  0.65625 1 0  0.6875 1 0  0.71875 1 0  0.75 1 0  0.78125 1 0  0.8125 1 0  0.84375 1 0  0.875 1 0  0.90625 1 0  0.9375 1 0  0.96875 1 0  1 1 0  0 1.0625 0  0.03125 1.0625 0  0.0625 1.0625 0  0.09375 1.0625 0  0.125 1.0625 0  0.15625 1.0625 0  0.1875 1.0625 0  0.21875 1.0625 0  0.25 1.0625 0  0.28125 1.0625 0  0.3125 1.0625 0  0.34375 1.0625 0  0.375 1.0625 0  0.40625 1.0625 0  0.4375 1.0625 0  0.46875 1.0625 0  0.5 1.0625 0  0.53125 1.0625 0  0.5625 1.0625 0  0.59375 1.0625 0  0.625 1.0625 0  0.65625 1.0625 0  0.6875 1.0625 0  0.71875 1.0625 0  0.75 1.0625 0  0.78125 1.0625 0  0.8125 1.0625 0  0.84375 1.0625 0  0.875 1.0625 0  0.90625 1.0625 0  0.9375 1.0625 0  0.96875 1.0625 0  1 1.0625 0  0 1.125 0  0.03125 1.125 0  0.0625 1.125 0  0.09375 1.125 0  0.125 1.125 0  0.15625 1.125 0  0.1875 1.125 0  0.21875 1.125 0  0.25 1.125 0  0.28125 1.125 0  0.3125 1.125 0  0.34375 1.125 0  0.375 1.125 0  0.40625 1.125 0  0.4375 1.125 0  0.46875 1.125 0  0.5 1.125 0  0.53125 1.125 0  0.5625 1.125 0  0.59375 1.125 0  0.625 1.125 0  0.65625 1.125 0  0.6875 1.125 0  0.71875 1.125 0  0.75 1.125 0  0.78125 1.125 0  0.8125 1.125 0  0.84375 1.125 0  0.875 1.125 0  0.9
[...]
<PointData  Scalars="f_9"> 
<DataArray  type="Float64"  Name="f_9"  format="ascii">0.0000000000000000e+00  4.0216829297208920e-02  7.9639842708760969e-02  1.1749243379845892e-01  1.5303203346731215e-01  1.8556619268053487e-01  2.1446759117240244e-01  2.3918769211034119e-01  2.5926882086535263e-01  2.7435450595674699e-01  2.8419797122813029e-01  2.8866869742983453e-01  2.8775696660167849e-01  2.8157625893798266e-01  2.7036329895869754e-01  2.5447547583175845e-01  2.3438533883503540e-01  2.1067194244915421e-01  1.8400901421546245e-01  1.5515022981631937e-01  1.2491225195952640e-01  9.4156557320219325e-02  6.3771402486605219e-02  3.4655600063180934e-02  7.7062330154649208e-03  -1.6186662448276108e-02  -3.6133451991528745e-02  -5.1216989736168589e-02  -6.0424609617601856e-02  -6.2499900499686040e-02  -5.5625664671813228e-02  -3.6737122117224658e-02  0.0000000000000000e+00  0.0000000000000000e+00  3.2098301424082806e-02  6.3604853126636149e-02  9.3940116121234776e-02  1.2254869577575045e-01  1.4891073810686029e-01  1.7255256186140713e-01  1.9305634798299878e-01  2.1006876855766321e-01  2.2330850325563262e-01  2.3257265054685475e-01  2.3774207460575658e-01  2.3878571296138407e-01  2.3576378445070520e-01  2.2882968169296333e-01  2.1823014424876810e-01  2.0430316629655551e-01  1.8747309219713570e-01  1.6824255953324208e-01  1.4718134779078901e-01  1.2491267866272500e-01  1.0209794310634041e-01  7.9421080856809712e-02  5.7573869198113359e-02  3.7243218479860916e-02  1.9101246333172610e-02  3.7982940327446870e-03  -8.0423439237288803e-03  -1.5832807636125670e-02  -1.9046520118991266e-02  -1.7300687868180731e-02  -1.0598744407588125e-02  0.0000000000000000e+00  0.0000000000000000e+00  2.6346772369639268e-02  5.2255018098843614e-02  7.7294530767305580e-02  1.0105150385778716e-01  1.2313614698778533e-01  1.4318965269847936e-01  1.6089038877939771e-01  1.7595928131560451e-01  1.8816447591093585e-01  1.9732550988081055e-01  2.0331736138857115e-01  2.0607478962576373e-01  2.0559724376934752e-01  2.0195422428180840e-01  1.9529036586162843e-01  1.8582888439614750e-01  1.7387171983752289e-01  1.5979498739686268e-01  1.4403923258381454e-01  1.2709515010166783e-01  1.0948637379774190e-01  9.1751283547362714e-02  7.4425421085753382e-02  5.8025256696398769e-02  4.3032971719632183e-02  2.9880740545712482e-02  1.8931589425205231e-02  1.0451984262851178e-02  4.5686797647502310e-03  1.1998436676397932e-03  -4.7570592628610106e-05  0.0000000000000000e+00  0.0000000000000000e+00  2.2349349100611489e-02  4.4380112128131234e-02  6.5779091850782942e-02  8.6243591583788248e-02  1.0548598195153154e-01  1.2323747690998038e-01  1.3925092834662919e-01  1.5330256921773366e-01  1.6519287180640330e-01  1.7474708152200508e-01  1.8181650465672317e-01  1.8628207613691947e-01  1.8806172943873792e-01  1.8712222213837537e-01  1.8349424413239468e-01  1.7728741353028954e-01  1.6870030287921897e-01  1.5802104537927603e-01  1.4561655066025234e-01  1.3191185652543999e-01  1.1736392185466447e-01  1.0243494055813346e-01  8.7568959559565313e-02  7.3173209007425785e-02  5.9603335252525647e-02  4.7150402213979460e-02  3.6027168076304218e-02  2.6351516483337639e-02  1.8125988776749664e-02  1.1214683111254439e-02  5.3236626277931420e-03  0.0000000000000000e+00  0.0000000000000000e+00  1.9626263976318576e-02  3.9032314218355450e-02  5.8001479382376667e-02  7.6323801095209309e-02  9.3798430643429340e-02  1.1023477967004834e-01  1.2545189186078126e-01  1.3927554525914243e-01  1.5153295002701303e-01  1.6204584176185036e-01  1.7062439485540967e-01  1.7706626766626149e-01  1.8116603548373134e-01  1.8273866630429098e-01  1.8165576848802190e-01  1.7788649044991789e-01  1.7152982927326751e-01  1.6282553559799245e-01  1.5213774849485953e-01  1.3991568622744308e-01  1.2664360016290874e-01  1.1279381078446654e-01  9.8792169312412817e-02  8.4998284508767258e-02  7.1697292816685271e-02  5.9097767239636334e-02  4.7331129244481018e-02  3.6450123522679949e-02  2.6426279477945826e-02  1.7148346045537676e-02  8.4254554977158287e-03  0.0000000000000000e+00  0.0000000000000000e+00  1.7784000208940352e-02  3.5431919595631342e-02  5.2810732895408309e-02  6.9793069908379593e-02  8.6258775422197162e-02  1.0209451767061239e-01  1.1719008712263512e-01  1.3142965721290187e-01  1.4467657420707911e-01  1.5675211009810669e-01  1.6741270201851979e-01  1.7633575504818438e-01  1.8312798753766221e-01  1.8736788375865088e-01  1.8868224798697131e-01  1.8683921708293760e-01  1.8182601041209503e-01  1.7387976737826694e-01  1.6345699701924241e-01  1.5115278834564438e-01  1.3760016847927931e-01  1.2338264777650408e-01  1.0898028719014377e-01  9.4751608643597204e-02  8.0940732622194894e-02  6.7695510957959198e-02  5.5085921723747155e-02  4.3117869158971783e-02  3.1742257106137116e-02  2.0861653102569586e-02  1.0337462172435372e-02  0.0000000000000000e+00  0.0000000000000000e+00  1.6485932915145551e-02  3.2907433393549207e-02  4.9203985228649487e-02  6.5322467191605296e-02  8.1219472853418989e-02  9.6860958231052632e-02  1.1221651218997859e-01  1.2724425944563406e-01  1.4186226951284509e-01  1.5590545555128910e-01  1.6907509207797941e-01  1.8090013248753090e-01  1.9073909571450776e-01  1.9784823996934239e-01  2.0151930176596108e-01  2.0125406193201556e-01  1.9691345645417907e-01  1.8877833773323688e-01  1.7749364486112101e-01  1.6391940953566819e-01  1.4894972227054001e-01  1.3336394057839723e-01  1.1774681219328823e-01  1.0247750635512763e-01  8.7763028830240175e-02  7.3686663296659238e-02  6.0251061014062191e-02  4.7408021097195566e-02  3.5075833479670394e-02  2.3148657231322072e-02  1.1502391590652257e-02  0.0000000000000000e+00  0.0000000000000000e+00  1.5445263728061336e-02  3.0881396601294277e-02  4.6304561774586313e-02  6.1721190630064239e-02  7.7151870819961221e-02  9.2632068114584770e-02  1.0820554377649463e-01  1.2390392448735742e-01  1.3970510257944765e-01  1.5546746881352719e-01  1.7084954624590870e-01  1.8524392184610061e-01  1.9777043567112518e-01  2.0736998589158651e-01  2.1300592920000075e-01  2.1392387595630519e-01  2.0987447269457604e-01  2.0120301598471385e-01  1.8876401585104743e-01  1.7369873670254474e-01  1.5717049454572909e-01  1.4015478935258008e-01  1.2333667697299044e-01  1.0711101639453896e-01  9.1645131350512624e-02  7.6958375738891735e-02  6.2988671831803317e-02  4.9635712907488055e-02  3.6783610695697265e-02  2.4310441073753426e-02  1.2091431925531708e-02  0.0000000000000000e+00  0.0000000000000000e+00  1.4440516973025013e-02  2.8904800069182498e-02  4.3422356482442262e-02  5.8033930102036203e-02  7.2795981279841757e-02  8.7781805321131265e-02  1.0307446086233968e-01  1.1874373759130415e-01  1.3479833965598495e-01  1.5110944735974433e-01  1.6731658345349454e-01  1.8274947525224047e-01  1.9641846240436445e-01  2.0712162525947281e-01  2.1367635836317814e-01  2.1521756746803555e-01  2.1145155193726836e-01  2.0275510429233515e-01  1.9007354814532004e-01  1.7466406325569991e-01  1.5779483668658900e-01  1.4051105039272047e-01  1.2352560120387797e-01  1.0722690557191723e-01  9.1755693352217435e-02  7.7098320906609771e-02  6.3162989917958809e-02  4.9828014490691623e-02  3.6966024352296852e-02  2.4452946558168247e-02  1.2169508145950116e-02  0.0000000000000000e+00  0.0000000000000000e+00  1.3339951285012594e-02  2.6712067386237878e-02  4.0152937013492034e-02  5.3707685591585078e-02  6.7433000135352694e-02  8.1396915094963732e-02  9.5671088188476125e-02  1.1030887521618096e-01  1.2530187366011408e-01  1.4051230882414587e-01  1.5559172924283712e-01  1.6991609030721611e-01  1.8258286834267759e-01  1.9251078119426898e-01  1.9864658016017803e-01  2.0022659818157573e-01  1.9699605627505579e-01  1.8929142416958147e-01  1.7794787742702459e-01  1.6407379958916612e-01  1.4878854912821904e-01  1.3301895949090470e-01  1.1740383069114493e-01  1.0229948696404752e-01  8.7845091248869356e-02  7.4042798813462540e-02  6.0823885608145584e-02  4.8091301168828759e-02  3.5741643280362334e-02  2.3673851632517465e-02  1.1791108860850247e-02  0.0000000000000000e+00  0.0000000000000000e+00  1.2110071108448405e-02  2.4241684136049758e-02  3.6418368541146683e-02  4.8667213841444554e-02  6.1019304526997158e-02  7.3507431876806237e-02  8.6158236988896991e-02  9.8974648451812086e-02  1.1190452743958645e-01  1.2479501279010463e-01  1.3734083016976636e-01  1.4904718483088861e-01  1.5923678026147167e-01  1.6712562903272160e-01  1.7196777494498716e-01  1.7323234602209206e-01  1.7074873692935877e-01  1.6475886839261200e-01  1.5585316344830374e-01  1.4481854336188693e-01  1.3246139398621631e-01  1.1946783531605719e-01  1.0633407646565417e-01  9.3363613895634023e-02  8.0705581721576047e-02  6.8405500592115351e-02  5.6449247146576467e-02  4.4793103014753394e-02  3.3380870136604339e-02  2.2152130662535560e-02  1.1045572945216813e-02  0.0000000000000000e+00  0.0000000000000000e+00  1.0793630372005232e-02  2.1589437520272248e-02  3.2389402807198597e-02  4.3194709619719648e-02  5.4004183251963302e-02  6.4810850716989818e-02  7.5595214663473645e-02  8.6313477168979691e-02  9.6879385732435097e-02  1.0714055783991401e-01  1.1685462274672327e-01  1.2567621449486935e-01  1.3316923215229834e-01  1.3885509959892378e-01  1.4229478629632969e-01  1.4318432114160851e-01  1.4143082249250846e-01  1.3717871812457710e-01  1.3077506592922047e-01  1.2268850748054766e-01  1.1341355566208228e-01  1.0339198162422650e-01  9.2968978764400786e-02  8.2384133298585502e-02  7.1785647721984286e-02  6.1253835283342217e-02  5.0823790828744324e-02  4.0502680796646762e-02  3.0281168100643154e-02  2.0140337502167201e-02  1.0055766300918634e-02  0.0000000000000000e+00  0.0000000000000000e+00  9.4683203048076016e-03  1.8919907715311296e-02  2.8336701913282265e-02  3.7697706468799143e-02  4.6976780134593603e-02  5.6139421971816095e-02  6.5138071933163760e-02  7.3905505331627791e-02  8.2346325133858367e-02  9.0327627967917337e-02  9.7671690087582905e-02  1.0415541482247337e-01  1.0952193094554059e-01  1.1350752243591394e-01  1.1588152450749477e-01  1.1648984538746321e-01  1.1528832468160739e-01  1.1235376995190201e-01  1.0786840447235968e-01  1.0208365297505520e-01  9.5276133548865050e-02  8.7709144454743662e-02  7.9607798200207192e-02  7.1149091039295342e-02  6.2463253529021712e-02  5.3641109412698451e-02  4.4743096411755674e-02  3.5807471707604899e-02  2.6856831347558025e-02  1.7902990825875143e-02  8.9506132398866865e-03  0.0000000000000000e+00  0.0000000000000000e+00  8.2098958200465307e-03  1.6389366421575128e-02  2.4506488965481354e-02  3.2526212181985550e-02  4.0408464736017995e-02  4.8105889750382158e-02  5.5561142155870526e-02  6.2703808958952417e-02  6.9447267206484198e-02  7.5686219344752656e-02  8.1296183720037787e-02  8.6136626825097248e-02  9.0059278302199855e-02  9.2922070798200737e-02  9.4607112235389451e-02  9.5038853135821055e-02  9.4197397222087087e-02  9.2122723519703895e-02  8.8908385107844518e-02  8.4686746064158380e-02  7.9610285940966599e-02  7.3833889458220031e-02  6.7501555088837997e-02  6.0738711567840810e-02  5.3649482338472547e-02  4.6317346977484651e-02  3.8807622808064976e-02  3.1170615885446281e-02  2.3444787417700522e-02  1.5659655381794559e-02  7.8383692142355021e-03  0.0000000000000000e+00  0.0000000000000000e+00  7.0731632815307505e-03  1.4108181577132745e-02  2.1065743180856297e-02  2.7904170909429201e-02  3.4578172192027801e-02  4.1037546925325200e-02  4.7225911684885116e-02  5.3079577187749742e-02  5.8526826780913289e-02  6.3487976180934977e-02  6.7876706181695390e-02  7.1603166473926630e-02  7.4579143678280432e-02  7.6725106755716005e-02  7.7978258067175205e-02  7.8300075730465685e-02  7.7681576617526782e-02  7.6144899412286304e-02  7.3740746237515517e-02  7.0542355775959076e-02  6.6637524083734509e-02  6.2120428283354137e-02  5.7084659416800181e-02  5.1618209939411241e-02  4.5800517359144838e-02  3.9701244237364812e-02  3.3380312308144068e-02  2.6888730568167974e-02  2.0269864250014591e-02  1.3560911305790752e-02  6.7944512276579792e-03  0.0000000000000000e+00  0.0000000000000000e+00  6.0890095037802877e-03  1.2136818755366405e-02  1.8101515629053783e-02  2.3939778399292143e-02  2.9606214980019970e-02  3.5052779364167133e-02  4.0228331598502309e-02  4.5078440800192618e-02  4.9545566003100686e-02  5.3569776089459564e-02  5.7090169057178022e-02  6.0047098171978189e-02  6.2385188169051621e-02  6.4056930406378165e-02  6.5026422364802383e-02  6.5272644092003063e-02  6.4791632858875334e-02  6.3597078720148609e-02  6.1719188340586109e-02  5.9202043882773225e-02  5.6099982062191647e-02  5.2473641831965227e-02  4.8386266926440220e-02  4.3900664103177639e-02  3.9076999137858129e-02  3.3971431582333997e-02  2.8635477456849426e-02  2.3115943365629572e-02  1.7455275712095430e-02  1.1692192579533441e-02  5.8624970628573109e-03  0.0000000000000000e+00  0.0000000000000000e+00  5.2696566281116020e-03  1.0497905016511334e-02  1.5643022928798548e-02  2.0662685482822671e-02  2.5513731067136326e-02  3.0152018266768790e-02  3.4532419632751457e-02  3.8609007446162913e-02  4.2335492205968127e-02  4.5665971156231916e-02  4.8556025477030057e-02  5.0964165363398761e-02  5.2853560974922886e-02  5.4193921404252887e-02  5.4963311221834135e-02  5.5149650344097578e-02  5.4751651886401791e-02  5.3779024100119567e-02  5.2251883574326446e-02  5.0199464280111218e-02  4.7658320473023735e-02  4.4670281167720774e-02  4.1280411836459634e-02  3.7535188394022159e-02  3.3481014013422850e-02  2.9163134823391987e-02  2.4624951616843607e-02  1.9907686892323365e-02  1.5050348053250917e-02  1.0089923112246149e-02  5.0617490153460646e-03  0.0000000000000000e+00  0.0000000000000000e+00  4.6159367047579215e-03  9.1915131557873866e-03  1.3686351565457836e-02  1.8060060126773886e-02  2.2272279736585049e-02  2.6282797898780269e-02  3.0051755440748219e-02  3.3539971881609169e-02  3.6709412320301525e-02  3.9523810648539631e-02  4.1949449109858462e-02  4.3956072189037111e-02  4.5517885081065627e-02  4.6614557952960295e-02  4.7232133977696787e-02  4.7363729909941289e-02  4.7009929187373789e-02  4.6178800536675793e-02  4.4885524410516416e-02  4.3151664152582626e-02  4.1004165548266074e-02  3.8474197156094653e-02  3.5595950432448668e-02  3.2405505612779696e-02  2.8939843451226535e-02  2.5236052296548735e-02  2.1330751195402856e-02  1.7259726665856269e-02  1.3057764740027789e-02  8.7586502519653980e-03  4.3953006376013688e-03  0.0000000000000000e+00  0.0000000000000000e+00  4.1236577960473281e-03  8.2080734594042800e-03  1.2214199591520203e-02  1.6103390563408860e-02  1.9837634156344444e-02  2.3379819902104568e-02  2.6694055381965804e-02  2.9746039717189816e-02  3.2503499638204314e-02  3.4936687323432782e-02  3.7018930446328736e-02  3.8727213955547096e-02  4.0042761267606135e-02  4.0951571891780697e-02  4.1444865764916058e-02  4.1519384426734834e-02  4.1177507303665303e-02  4.0427157638362868e-02  3.9281494667415463e-02  3.7758412447612556e-02  3.5879886628429475e-02  3.3671224659295639e-02  3.1160280466087355e-02  2.8376691749988310e-02  2.5351188668035641e-02  2.2115009479872695e-02  1.8699444460666410e-02  1.5135516015837278e-02  1.1453791673196788e-02  7.6843178962142308e-03  3.8566563526423983e-03  0.0000000000000000e+00  0.0000000000000000e+00  3.7883474180906685e-03  7.5377918879544707e-03  1.1209788258378131e-02  1.4766510515477560e-02  1.8171219963661823e-02  2.1388642965893268e-02  2.4385359893965220e-02  2.7130205192147483e-02  2.9594675863669897e-02  3.1753342181924958e-02  3.3584250127412750e-02  3.5069300343474642e-02  3.6194583975348020e-02  3.6950652546985430e-02  3.7332698071268440e-02  3.7340621747771939e-02  3.6978975276103131e-02  3.6256767697877772e-02  3.5187141716376220e-02  3.3786934998398764e-02  3.2076152218698306e-02  3.0077381007278071e-02  2.7815188564429841e-02  2.5315535337897939e-02  2.2605238304222161e-02  1.9711509985237987e-02  1.6661591427665875e-02  1.3482488956820636e-02  1.0200816343663002e-02  6.8427366068013126e-03  3.4339913039611457e-03  0.0000000000000000e+00  0.0000000000000000e+00  3.6086488330413389e-03  7.1773027142646249e-03  1.0666473378530808e-02  1.4037681703199674e-02  1.7253951554768412e-02  2.0280290326259283e-02  2.3084150925372492e-02  2.5635869173404331e-02  2.7909069501510023e-02  2.9881030530200456e-02  3.1533000724044448e-02  3.2850453064879367e-02  3.3823266919518799e-02  3.4445825385967313e-02  3.4717017762349318e-02  3.4640139654933885e-02  3.4222687668650227e-02  3.3476051365326880e-02  3.2415111707275283e-02  3.1057761793318029e-02  2.9424371534104012e-02  2.7537222279974266e-02  2.5419939796987798e-02  2.3096954154138007e-02  2.0593013081537236e-02  1.7932771444914085e-02  1.5140474047743442e-02  1.2239742467048894e-02  9.2534695089440920e-03  6.2038175813019349e-03  3.1123102597637262e-03  0.0000000000000000e+00  0.0000000000000000e+00  3.5889300552642213e-03  7.1347464084031741e-03  1.0595007857072715e-02  1.3928606783322188e-02  1.7096407466186139e-02  2.0061850376135140e-02  2.2791511361103214e-02  2.5255604834361269e-02  2.7428420337002005e-02  2.9288682217844655e-02  3.0819822732683633e-02  3.2010159731022385e-02  3.2852971416393026e-02  3.3346462585139978e-02  3.3493619388534651e-02  3.3301953077481294e-02  3.2783137329274618e-02  3.1952548451620176e-02  3.0828722721744320e-02  2.9432749969227824e-02  2.7787626829149537e-02  2.5917596468084194e-02  2.3847503668992149e-02  2.1602194689378788e-02  1.9205990114940438e-02  1.6682255946779585e-02  1.4053093401916423e-02  1.1339161486918096e-02  8.5596385523745693e-03  5.7323201313867547e-03  2.8738409684683792e-03  0.0000000000000000e+00  0.0000000000000000e+00  3.7416660859881769e-03  7.4344097204193634e-03  1.1030192425294894e-02  1.4482724836986783e-02  1.7748294469263681e-02  2.0786538125934645e-02  2.3561141843673968e-02  2.6040452377787366e-02  2.8197985659686200e-02  3.0012819369503355e-02  3.1469858807323454e-02  3.2559967649037430e-02  3.3279957979761431e-02  3.3632437245721049e-02  3.3625513472511352e-02  3.3272364248641197e-02  3.2590679507689305e-02  3.1601992946798628e-02  3.0330921826775305e-02  2.8804339695384464e-02  2.7050511008143086e-02  2.5098220408300832e-02  2.2975932263081703e-02  2.0711017603919486e-02  1.8329085523233708e-02  1.5853453955454327e-02  1.3304790236630030e-02  1.0700944584968109e-02  8.0569895415821876e-03  5.3854656491938114e-03  2.6968188993730519e-03  0.0000000000000000e+00  0.0000000000000000e+00  4.0900919229400895e-03  8.1219167506581848e-03  1.2038378166251640e-02  1.5784694008311326e-02  1.9309485374764946e-02  2.2565785631460701e-02  2.5511945060748383e-02  2.8112408930071754e-02  3.0338349270697104e-02  3.2168133609150350e-02  3.3587617266387808e-02  3.4590249611012314e-02  3.5176988802187337e-02  3.5356024062979358e-02  3.5142309359129827e-02  3.4556917488128065e-02  3.3626228965859060e-02  3.2380975678507638e-02  3.0855164977276379e-02  2.9084915644943171e-02  2.7107242837540093e-02  2.4958834530024992e-02  2.2674866912943559e-02  2.0287910204554407e-02  1.7826978879901350e-02  1.5316780568308722e-02  1.2777214802694099e-02  1.0223165249914118e-02  7.6646159267996089e-03  5.1071025967303948e-03  2.5524854284868963e-03  0.0000000000000000e+00  0.0000000000000000e+00  4.6715861407799712e-03  9.2708774293955836e-03  1.3727146201343446e-02  1.7972761082060140e-02  2.1944640719297623e-02  2.5585596446619042e-02  2.8845530517680060e-02  3.1682459597148174e-02  3.4063336890396388e-02  3.5964650573660495e-02  3.7372780975903908e-02  3.8284104186785101e-02  3.8704835346145328e-02  3.8650610738803673e-02  3.8145813914357118e-02  3.7222657332683963e-02  3.5920037484358604e-02  3.4282188065735908e-02  3.2357162652185231e-02  3.0195185494781441e-02  2.7846916667385105e-02  2.5361685890014470e-02  2.2785757928036315e-02  2.0160701270244955e-02  1.7521940184327258e-02  1.4897576997251123e-02  1.2307574517419538e-02  9.7633849961982246e-03  7.2680983398358406e-03  4.8171548969641043e-03  2.3996249985743330e-03  0.0000000000000000e+00  0.0000000000000000e+00  5.5422597672772902e-03  1.0991928174803975e-02  1.6258529801359882e-02  2.125576